ITEM: TIMESTEP
0
ITEM: NUMBER OF ATOMS
28873
ITEM: BOX BOUNDS pp pp pp
0.0000000000000000e+00 2.0400000000000000e+02
0.0000000000000000e+00 2.0400000000000000e+02
0.0000000000000000e+00 2.0400000000000000e+02
ITEM: ATOMS id type x y z 
31 1 93.84 85.68 57.12 
20 1 95.88 83.64 57.12 
35 1 97.92 85.68 57.12 
23 1 99.96 83.64 57.12 
44 1 89.76 89.76 57.12 
28 1 91.8 87.72 57.12 
48 1 93.84 89.76 57.12 
1 1 95.88 89.76 55.08 
32 1 95.88 87.72 57.12 
52 1 97.92 89.76 57.12 
3 1 99.96 89.76 55.08 
36 1 99.96 87.72 57.12 
59 1 85.68 93.84 57.12 
41 1 87.72 91.8 57.12 
63 1 89.76 93.84 57.12 
2 1 93.84 91.8 55.08 
5 1 91.8 93.84 55.08 
45 1 91.8 91.8 57.12 
67 1 93.84 93.84 57.12 
4 1 97.92 91.8 55.08 
7 1 95.88 93.84 55.08 
49 1 95.88 91.8 57.12 
71 1 97.92 93.84 57.12 
9 1 99.96 93.84 55.08 
53 1 99.96 91.8 57.12 
56 1 83.64 95.88 57.12 
79 1 85.68 97.92 57.12 
6 1 89.76 95.88 55.08 
60 1 87.72 95.88 57.12 
83 1 89.76 97.92 57.12 
8 1 93.84 95.88 55.08 
11 1 91.8 97.92 55.08 
64 1 91.8 95.88 57.12 
87 1 93.84 97.92 57.12 
10 1 97.92 95.88 55.08 
13 1 95.88 97.92 55.08 
68 1 95.88 95.88 57.12 
91 1 97.92 97.92 57.12 
15 1 99.96 97.92 55.08 
72 1 99.96 95.88 57.12 
76 1 83.64 99.96 57.12 
12 1 89.76 99.96 55.08 
80 1 87.72 99.96 57.12 
14 1 93.84 99.96 55.08 
84 1 91.8 99.96 57.12 
16 1 97.92 99.96 55.08 
88 1 95.88 99.96 57.12 
92 1 99.96 99.96 57.12 
98 1 99.96 75.48 61.2 
107 1 93.84 77.52 61.2 
111 1 97.92 77.52 61.2 
118 1 85.68 81.6 61.2 
101 1 87.72 79.56 61.2 
122 1 89.76 81.6 61.2 
18 1 91.8 81.6 59.16 
104 1 91.8 79.56 61.2 
126 1 93.84 81.6 61.2 
17 1 97.92 79.56 59.16 
21 1 95.88 81.6 59.16 
108 1 95.88 79.56 61.2 
130 1 97.92 81.6 61.2 
24 1 99.96 81.6 59.16 
112 1 99.96 79.56 61.2 
137 1 81.6 85.68 61.2 
115 1 83.64 83.64 61.2 
141 1 85.68 85.68 61.2 
19 1 89.76 83.64 59.16 
26 1 87.72 85.68 59.16 
119 1 87.72 83.64 61.2 
145 1 89.76 85.68 61.2 
22 1 93.84 83.64 59.16 
29 1 91.8 85.68 59.16 
123 1 91.8 83.64 61.2 
149 1 93.84 85.68 61.2 
25 1 97.92 83.64 59.16 
33 1 95.88 85.68 59.16 
127 1 95.88 83.64 61.2 
153 1 97.92 85.68 61.2 
37 1 99.96 85.68 59.16 
131 1 99.96 83.64 61.2 
134 1 79.56 87.72 61.2 
161 1 81.6 89.76 61.2 
27 1 85.68 87.72 59.16 
39 1 83.64 89.76 59.16 
138 1 83.64 87.72 61.2 
165 1 85.68 89.76 61.2 
30 1 89.76 87.72 59.16 
42 1 87.72 89.76 59.16 
142 1 87.72 87.72 61.2 
169 1 89.76 89.76 61.2 
34 1 93.84 87.72 59.16 
46 1 91.8 89.76 59.16 
146 1 91.8 87.72 61.2 
173 1 93.84 89.76 61.2 
38 1 97.92 87.72 59.16 
50 1 95.88 89.76 59.16 
150 1 95.88 87.72 61.2 
177 1 97.92 89.76 61.2 
54 1 99.96 89.76 59.16 
154 1 99.96 87.72 61.2 
183 1 77.52 93.84 61.2 
40 1 81.6 91.8 59.16 
158 1 79.56 91.8 61.2 
187 1 81.6 93.84 61.2 
43 1 85.68 91.8 59.16 
57 1 83.64 93.84 59.16 
162 1 83.64 91.8 61.2 
191 1 85.68 93.84 61.2 
47 1 89.76 91.8 59.16 
61 1 87.72 93.84 59.16 
166 1 87.72 91.8 61.2 
195 1 89.76 93.84 61.2 
51 1 93.84 91.8 59.16 
65 1 91.8 93.84 59.16 
170 1 91.8 91.8 61.2 
199 1 93.84 93.84 61.2 
55 1 97.92 91.8 59.16 
69 1 95.88 93.84 59.16 
174 1 95.88 91.8 61.2 
203 1 97.92 93.84 61.2 
73 1 99.96 93.84 59.16 
178 1 99.96 91.8 61.2 
210 1 77.52 97.92 61.2 
58 1 81.6 95.88 59.16 
75 1 79.56 97.92 59.16 
184 1 79.56 95.88 61.2 
214 1 81.6 97.92 61.2 
62 1 85.68 95.88 59.16 
77 1 83.64 97.92 59.16 
188 1 83.64 95.88 61.2 
218 1 85.68 97.92 61.2 
66 1 89.76 95.88 59.16 
81 1 87.72 97.92 59.16 
192 1 87.72 95.88 61.2 
222 1 89.76 97.92 61.2 
70 1 93.84 95.88 59.16 
85 1 91.8 97.92 59.16 
196 1 91.8 95.88 61.2 
226 1 93.84 97.92 61.2 
74 1 97.92 95.88 59.16 
89 1 95.88 97.92 59.16 
200 1 95.88 95.88 61.2 
230 1 97.92 97.92 61.2 
93 1 99.96 97.92 59.16 
204 1 99.96 95.88 61.2 
207 1 75.48 99.96 61.2 
78 1 81.6 99.96 59.16 
211 1 79.56 99.96 61.2 
82 1 85.68 99.96 59.16 
215 1 83.64 99.96 61.2 
86 1 89.76 99.96 59.16 
219 1 87.72 99.96 61.2 
90 1 93.84 99.96 59.16 
223 1 91.8 99.96 61.2 
94 1 97.92 99.96 59.16 
227 1 95.88 99.96 61.2 
231 1 99.96 99.96 61.2 
234 1 91.8 71.4 65.28 
237 1 95.88 71.4 65.28 
240 1 99.96 71.4 65.28 
243 1 83.64 75.48 65.28 
95 1 89.76 75.48 63.24 
246 1 87.72 75.48 65.28 
249 1 89.76 73.44 65.28 
97 1 93.84 75.48 63.24 
250 1 91.8 75.48 65.28 
253 1 93.84 73.44 65.28 
96 1 95.88 73.44 63.24 
100 1 97.92 75.48 63.24 
254 1 95.88 75.48 65.28 
257 1 97.92 73.44 65.28 
99 1 99.96 73.44 63.24 
258 1 99.96 75.48 65.28 
264 1 81.6 77.52 65.28 
268 1 85.68 77.52 65.28 
102 1 87.72 77.52 63.24 
272 1 89.76 77.52 65.28 
105 1 91.8 77.52 63.24 
276 1 93.84 77.52 65.28 
109 1 95.88 77.52 63.24 
280 1 97.92 77.52 65.28 
113 1 99.96 77.52 63.24 
287 1 77.52 81.6 65.28 
261 1 79.56 79.56 65.28 
291 1 81.6 81.6 65.28 
103 1 85.68 79.56 63.24 
116 1 83.64 81.6 63.24 
265 1 83.64 79.56 65.28 
295 1 85.68 81.6 65.28 
106 1 89.76 79.56 63.24 
120 1 87.72 81.6 63.24 
269 1 87.72 79.56 65.28 
299 1 89.76 81.6 65.28 
110 1 93.84 79.56 63.24 
124 1 91.8 81.6 63.24 
273 1 91.8 79.56 65.28 
303 1 93.84 81.6 65.28 
114 1 97.92 79.56 63.24 
128 1 95.88 81.6 63.24 
277 1 95.88 79.56 65.28 
307 1 97.92 81.6 65.28 
132 1 99.96 81.6 63.24 
281 1 99.96 79.56 65.28 
284 1 75.48 83.64 65.28 
314 1 77.52 85.68 65.28 
117 1 81.6 83.64 63.24 
135 1 79.56 85.68 63.24 
288 1 79.56 83.64 65.28 
318 1 81.6 85.68 65.28 
121 1 85.68 83.64 63.24 
139 1 83.64 85.68 63.24 
292 1 83.64 83.64 65.28 
322 1 85.68 85.68 65.28 
125 1 89.76 83.64 63.24 
143 1 87.72 85.68 63.24 
296 1 87.72 83.64 65.28 
326 1 89.76 85.68 65.28 
129 1 93.84 83.64 63.24 
147 1 91.8 85.68 63.24 
300 1 91.8 83.64 65.28 
330 1 93.84 85.68 65.28 
133 1 97.92 83.64 63.24 
151 1 95.88 85.68 63.24 
304 1 95.88 83.64 65.28 
334 1 97.92 85.68 65.28 
155 1 99.96 85.68 63.24 
308 1 99.96 83.64 65.28 
157 1 75.48 89.76 63.24 
311 1 75.48 87.72 65.28 
341 1 73.44 89.76 65.28 
136 1 77.52 87.72 63.24 
345 1 77.52 89.76 65.28 
140 1 81.6 87.72 63.24 
159 1 79.56 89.76 63.24 
315 1 79.56 87.72 65.28 
349 1 81.6 89.76 65.28 
144 1 85.68 87.72 63.24 
163 1 83.64 89.76 63.24 
319 1 83.64 87.72 65.28 
353 1 85.68 89.76 65.28 
148 1 89.76 87.72 63.24 
167 1 87.72 89.76 63.24 
323 1 87.72 87.72 65.28 
357 1 89.76 89.76 65.28 
152 1 93.84 87.72 63.24 
171 1 91.8 89.76 63.24 
327 1 91.8 87.72 65.28 
361 1 93.84 89.76 65.28 
156 1 97.92 87.72 63.24 
175 1 95.88 89.76 63.24 
331 1 95.88 87.72 65.28 
365 1 97.92 89.76 65.28 
179 1 99.96 89.76 63.24 
335 1 99.96 87.72 65.28 
338 1 71.4 91.8 65.28 
181 1 75.48 93.84 63.24 
342 1 75.48 91.8 65.28 
372 1 73.44 93.84 65.28 
160 1 77.52 91.8 63.24 
376 1 77.52 93.84 65.28 
164 1 81.6 91.8 63.24 
185 1 79.56 93.84 63.24 
346 1 79.56 91.8 65.28 
380 1 81.6 93.84 65.28 
168 1 85.68 91.8 63.24 
189 1 83.64 93.84 63.24 
350 1 83.64 91.8 65.28 
384 1 85.68 93.84 65.28 
172 1 89.76 91.8 63.24 
193 1 87.72 93.84 63.24 
354 1 87.72 91.8 65.28 
388 1 89.76 93.84 65.28 
176 1 93.84 91.8 63.24 
197 1 91.8 93.84 63.24 
358 1 91.8 91.8 65.28 
392 1 93.84 93.84 65.28 
180 1 97.92 91.8 63.24 
201 1 95.88 93.84 63.24 
362 1 95.88 91.8 65.28 
396 1 97.92 93.84 65.28 
205 1 99.96 93.84 63.24 
366 1 99.96 91.8 65.28 
369 1 71.4 95.88 65.28 
182 1 73.44 95.88 63.24 
208 1 75.48 97.92 63.24 
373 1 75.48 95.88 65.28 
403 1 73.44 97.92 65.28 
186 1 77.52 95.88 63.24 
407 1 77.52 97.92 65.28 
190 1 81.6 95.88 63.24 
212 1 79.56 97.92 63.24 
377 1 79.56 95.88 65.28 
411 1 81.6 97.92 65.28 
194 1 85.68 95.88 63.24 
216 1 83.64 97.92 63.24 
381 1 83.64 95.88 65.28 
415 1 85.68 97.92 65.28 
198 1 89.76 95.88 63.24 
220 1 87.72 97.92 63.24 
385 1 87.72 95.88 65.28 
419 1 89.76 97.92 65.28 
202 1 93.84 95.88 63.24 
224 1 91.8 97.92 63.24 
389 1 91.8 95.88 65.28 
423 1 93.84 97.92 65.28 
206 1 97.92 95.88 63.24 
228 1 95.88 97.92 63.24 
393 1 95.88 95.88 65.28 
427 1 97.92 97.92 65.28 
232 1 99.96 97.92 63.24 
397 1 99.96 95.88 65.28 
400 1 71.4 99.96 65.28 
209 1 73.44 99.96 63.24 
404 1 75.48 99.96 65.28 
213 1 77.52 99.96 63.24 
217 1 81.6 99.96 63.24 
408 1 79.56 99.96 65.28 
221 1 85.68 99.96 63.24 
412 1 83.64 99.96 65.28 
225 1 89.76 99.96 63.24 
416 1 87.72 99.96 65.28 
229 1 93.84 99.96 63.24 
420 1 91.8 99.96 65.28 
233 1 97.92 99.96 63.24 
424 1 95.88 99.96 65.28 
428 1 99.96 99.96 65.28 
431 1 91.8 67.32 69.36 
434 1 95.88 67.32 69.36 
437 1 99.96 67.32 69.36 
440 1 83.64 71.4 69.36 
443 1 85.68 69.36 69.36 
236 1 89.76 71.4 67.32 
444 1 87.72 71.4 69.36 
447 1 89.76 69.36 69.36 
235 1 91.8 69.36 67.32 
239 1 93.84 71.4 67.32 
448 1 91.8 71.4 69.36 
451 1 93.84 69.36 69.36 
238 1 95.88 69.36 67.32 
242 1 97.92 71.4 67.32 
452 1 95.88 71.4 69.36 
455 1 97.92 69.36 69.36 
241 1 99.96 69.36 67.32 
456 1 99.96 71.4 69.36 
245 1 81.6 75.48 67.32 
459 1 79.56 75.48 69.36 
462 1 81.6 73.44 69.36 
244 1 83.64 73.44 67.32 
248 1 85.68 75.48 67.32 
463 1 83.64 75.48 69.36 
466 1 85.68 73.44 69.36 
247 1 87.72 73.44 67.32 
252 1 89.76 75.48 67.32 
467 1 87.72 75.48 69.36 
470 1 89.76 73.44 69.36 
251 1 91.8 73.44 67.32 
256 1 93.84 75.48 67.32 
471 1 91.8 75.48 69.36 
474 1 93.84 73.44 69.36 
255 1 95.88 73.44 67.32 
260 1 97.92 75.48 67.32 
475 1 95.88 75.48 69.36 
478 1 97.92 73.44 69.36 
259 1 99.96 73.44 67.32 
479 1 99.96 75.48 69.36 
485 1 77.52 77.52 69.36 
262 1 79.56 77.52 67.32 
489 1 81.6 77.52 69.36 
266 1 83.64 77.52 67.32 
493 1 85.68 77.52 69.36 
270 1 87.72 77.52 67.32 
497 1 89.76 77.52 69.36 
274 1 91.8 77.52 67.32 
501 1 93.84 77.52 69.36 
278 1 95.88 77.52 67.32 
505 1 97.92 77.52 69.36 
282 1 99.96 77.52 67.32 
285 1 75.48 81.6 67.32 
482 1 75.48 79.56 69.36 
512 1 73.44 81.6 69.36 
263 1 77.52 79.56 67.32 
516 1 77.52 81.6 69.36 
267 1 81.6 79.56 67.32 
289 1 79.56 81.6 67.32 
486 1 79.56 79.56 69.36 
520 1 81.6 81.6 69.36 
271 1 85.68 79.56 67.32 
293 1 83.64 81.6 67.32 
490 1 83.64 79.56 69.36 
524 1 85.68 81.6 69.36 
275 1 89.76 79.56 67.32 
297 1 87.72 81.6 67.32 
494 1 87.72 79.56 69.36 
528 1 89.76 81.6 69.36 
279 1 93.84 79.56 67.32 
301 1 91.8 81.6 67.32 
498 1 91.8 79.56 69.36 
532 1 93.84 81.6 69.36 
283 1 97.92 79.56 67.32 
305 1 95.88 81.6 67.32 
502 1 95.88 79.56 69.36 
536 1 97.92 81.6 69.36 
309 1 99.96 81.6 67.32 
506 1 99.96 79.56 69.36 
509 1 71.4 83.64 69.36 
540 1 69.36 85.68 69.36 
286 1 73.44 83.64 67.32 
312 1 75.48 85.68 67.32 
513 1 75.48 83.64 69.36 
544 1 73.44 85.68 69.36 
290 1 77.52 83.64 67.32 
548 1 77.52 85.68 69.36 
294 1 81.6 83.64 67.32 
316 1 79.56 85.68 67.32 
517 1 79.56 83.64 69.36 
552 1 81.6 85.68 69.36 
298 1 85.68 83.64 67.32 
320 1 83.64 85.68 67.32 
521 1 83.64 83.64 69.36 
556 1 85.68 85.68 69.36 
302 1 89.76 83.64 67.32 
324 1 87.72 85.68 67.32 
525 1 87.72 83.64 69.36 
560 1 89.76 85.68 69.36 
306 1 93.84 83.64 67.32 
328 1 91.8 85.68 67.32 
529 1 91.8 83.64 69.36 
564 1 93.84 85.68 69.36 
310 1 97.92 83.64 67.32 
332 1 95.88 85.68 67.32 
533 1 95.88 83.64 69.36 
568 1 97.92 85.68 69.36 
336 1 99.96 85.68 67.32 
537 1 99.96 83.64 69.36 
339 1 71.4 89.76 67.32 
541 1 71.4 87.72 69.36 
575 1 69.36 89.76 69.36 
313 1 73.44 87.72 67.32 
343 1 75.48 89.76 67.32 
545 1 75.48 87.72 69.36 
579 1 73.44 89.76 69.36 
317 1 77.52 87.72 67.32 
583 1 77.52 89.76 69.36 
321 1 81.6 87.72 67.32 
347 1 79.56 89.76 67.32 
549 1 79.56 87.72 69.36 
587 1 81.6 89.76 69.36 
325 1 85.68 87.72 67.32 
351 1 83.64 89.76 67.32 
553 1 83.64 87.72 69.36 
591 1 85.68 89.76 69.36 
329 1 89.76 87.72 67.32 
355 1 87.72 89.76 67.32 
557 1 87.72 87.72 69.36 
595 1 89.76 89.76 69.36 
333 1 93.84 87.72 67.32 
359 1 91.8 89.76 67.32 
561 1 91.8 87.72 69.36 
599 1 93.84 89.76 69.36 
337 1 97.92 87.72 67.32 
363 1 95.88 89.76 67.32 
565 1 95.88 87.72 69.36 
603 1 97.92 89.76 69.36 
367 1 99.96 89.76 67.32 
569 1 99.96 87.72 69.36 
572 1 67.32 91.8 69.36 
340 1 69.36 91.8 67.32 
370 1 71.4 93.84 67.32 
576 1 71.4 91.8 69.36 
610 1 69.36 93.84 69.36 
344 1 73.44 91.8 67.32 
374 1 75.48 93.84 67.32 
580 1 75.48 91.8 69.36 
614 1 73.44 93.84 69.36 
348 1 77.52 91.8 67.32 
618 1 77.52 93.84 69.36 
352 1 81.6 91.8 67.32 
378 1 79.56 93.84 67.32 
584 1 79.56 91.8 69.36 
622 1 81.6 93.84 69.36 
356 1 85.68 91.8 67.32 
382 1 83.64 93.84 67.32 
588 1 83.64 91.8 69.36 
626 1 85.68 93.84 69.36 
360 1 89.76 91.8 67.32 
386 1 87.72 93.84 67.32 
592 1 87.72 91.8 69.36 
630 1 89.76 93.84 69.36 
364 1 93.84 91.8 67.32 
390 1 91.8 93.84 67.32 
596 1 91.8 91.8 69.36 
634 1 93.84 93.84 69.36 
368 1 97.92 91.8 67.32 
394 1 95.88 93.84 67.32 
600 1 95.88 91.8 69.36 
638 1 97.92 93.84 69.36 
398 1 99.96 93.84 67.32 
604 1 99.96 91.8 69.36 
607 1 67.32 95.88 69.36 
371 1 69.36 95.88 67.32 
401 1 71.4 97.92 67.32 
611 1 71.4 95.88 69.36 
645 1 69.36 97.92 69.36 
375 1 73.44 95.88 67.32 
405 1 75.48 97.92 67.32 
615 1 75.48 95.88 69.36 
649 1 73.44 97.92 69.36 
379 1 77.52 95.88 67.32 
653 1 77.52 97.92 69.36 
383 1 81.6 95.88 67.32 
409 1 79.56 97.92 67.32 
619 1 79.56 95.88 69.36 
657 1 81.6 97.92 69.36 
387 1 85.68 95.88 67.32 
413 1 83.64 97.92 67.32 
623 1 83.64 95.88 69.36 
661 1 85.68 97.92 69.36 
391 1 89.76 95.88 67.32 
417 1 87.72 97.92 67.32 
627 1 87.72 95.88 69.36 
665 1 89.76 97.92 69.36 
395 1 93.84 95.88 67.32 
421 1 91.8 97.92 67.32 
631 1 91.8 95.88 69.36 
669 1 93.84 97.92 69.36 
399 1 97.92 95.88 67.32 
425 1 95.88 97.92 67.32 
635 1 95.88 95.88 69.36 
673 1 97.92 97.92 69.36 
429 1 99.96 97.92 67.32 
639 1 99.96 95.88 69.36 
642 1 67.32 99.96 69.36 
402 1 69.36 99.96 67.32 
646 1 71.4 99.96 69.36 
406 1 73.44 99.96 67.32 
650 1 75.48 99.96 69.36 
410 1 77.52 99.96 67.32 
414 1 81.6 99.96 67.32 
654 1 79.56 99.96 69.36 
418 1 85.68 99.96 67.32 
658 1 83.64 99.96 69.36 
422 1 89.76 99.96 67.32 
662 1 87.72 99.96 69.36 
426 1 93.84 99.96 67.32 
666 1 91.8 99.96 69.36 
430 1 97.92 99.96 67.32 
670 1 95.88 99.96 69.36 
674 1 99.96 99.96 69.36 
678 1 95.88 63.24 73.44 
680 1 99.96 63.24 73.44 
683 1 83.64 67.32 73.44 
433 1 89.76 67.32 71.4 
686 1 87.72 67.32 73.44 
689 1 89.76 65.28 73.44 
432 1 91.8 65.28 71.4 
436 1 93.84 67.32 71.4 
690 1 91.8 67.32 73.44 
693 1 93.84 65.28 73.44 
435 1 95.88 65.28 71.4 
439 1 97.92 67.32 71.4 
694 1 95.88 67.32 73.44 
697 1 97.92 65.28 73.44 
438 1 99.96 65.28 71.4 
698 1 99.96 67.32 73.44 
442 1 81.6 71.4 71.4 
701 1 79.56 71.4 73.44 
704 1 81.6 69.36 73.44 
441 1 83.64 69.36 71.4 
446 1 85.68 71.4 71.4 
705 1 83.64 71.4 73.44 
708 1 85.68 69.36 73.44 
445 1 87.72 69.36 71.4 
450 1 89.76 71.4 71.4 
709 1 87.72 71.4 73.44 
712 1 89.76 69.36 73.44 
449 1 91.8 69.36 71.4 
454 1 93.84 71.4 71.4 
713 1 91.8 71.4 73.44 
716 1 93.84 69.36 73.44 
453 1 95.88 69.36 71.4 
458 1 97.92 71.4 71.4 
717 1 95.88 71.4 73.44 
720 1 97.92 69.36 73.44 
457 1 99.96 69.36 71.4 
721 1 99.96 71.4 73.44 
724 1 75.48 75.48 73.44 
461 1 77.52 75.48 71.4 
727 1 77.52 73.44 73.44 
460 1 79.56 73.44 71.4 
465 1 81.6 75.48 71.4 
728 1 79.56 75.48 73.44 
731 1 81.6 73.44 73.44 
464 1 83.64 73.44 71.4 
469 1 85.68 75.48 71.4 
732 1 83.64 75.48 73.44 
735 1 85.68 73.44 73.44 
468 1 87.72 73.44 71.4 
473 1 89.76 75.48 71.4 
736 1 87.72 75.48 73.44 
739 1 89.76 73.44 73.44 
472 1 91.8 73.44 71.4 
477 1 93.84 75.48 71.4 
740 1 91.8 75.48 73.44 
743 1 93.84 73.44 73.44 
476 1 95.88 73.44 71.4 
481 1 97.92 75.48 71.4 
744 1 95.88 75.48 73.44 
747 1 97.92 73.44 73.44 
480 1 99.96 73.44 71.4 
748 1 99.96 75.48 73.44 
483 1 75.48 77.52 71.4 
754 1 73.44 77.52 73.44 
758 1 77.52 77.52 73.44 
487 1 79.56 77.52 71.4 
762 1 81.6 77.52 73.44 
491 1 83.64 77.52 71.4 
766 1 85.68 77.52 73.44 
495 1 87.72 77.52 71.4 
770 1 89.76 77.52 73.44 
499 1 91.8 77.52 71.4 
774 1 93.84 77.52 73.44 
503 1 95.88 77.52 71.4 
778 1 97.92 77.52 73.44 
507 1 99.96 77.52 71.4 
510 1 71.4 81.6 71.4 
751 1 71.4 79.56 73.44 
785 1 69.36 81.6 73.44 
484 1 73.44 79.56 71.4 
514 1 75.48 81.6 71.4 
755 1 75.48 79.56 73.44 
789 1 73.44 81.6 73.44 
488 1 77.52 79.56 71.4 
793 1 77.52 81.6 73.44 
492 1 81.6 79.56 71.4 
518 1 79.56 81.6 71.4 
759 1 79.56 79.56 73.44 
797 1 81.6 81.6 73.44 
496 1 85.68 79.56 71.4 
522 1 83.64 81.6 71.4 
763 1 83.64 79.56 73.44 
801 1 85.68 81.6 73.44 
500 1 89.76 79.56 71.4 
526 1 87.72 81.6 71.4 
767 1 87.72 79.56 73.44 
805 1 89.76 81.6 73.44 
504 1 93.84 79.56 71.4 
530 1 91.8 81.6 71.4 
771 1 91.8 79.56 73.44 
809 1 93.84 81.6 73.44 
508 1 97.92 79.56 71.4 
534 1 95.88 81.6 71.4 
775 1 95.88 79.56 73.44 
813 1 97.92 81.6 73.44 
538 1 99.96 81.6 71.4 
779 1 99.96 79.56 73.44 
782 1 67.32 83.64 73.44 
511 1 69.36 83.64 71.4 
542 1 71.4 85.68 71.4 
786 1 71.4 83.64 73.44 
820 1 69.36 85.68 73.44 
515 1 73.44 83.64 71.4 
546 1 75.48 85.68 71.4 
790 1 75.48 83.64 73.44 
824 1 73.44 85.68 73.44 
519 1 77.52 83.64 71.4 
828 1 77.52 85.68 73.44 
523 1 81.6 83.64 71.4 
550 1 79.56 85.68 71.4 
794 1 79.56 83.64 73.44 
832 1 81.6 85.68 73.44 
527 1 85.68 83.64 71.4 
554 1 83.64 85.68 71.4 
798 1 83.64 83.64 73.44 
836 1 85.68 85.68 73.44 
531 1 89.76 83.64 71.4 
558 1 87.72 85.68 71.4 
802 1 87.72 83.64 73.44 
840 1 89.76 85.68 73.44 
535 1 93.84 83.64 71.4 
562 1 91.8 85.68 71.4 
806 1 91.8 83.64 73.44 
844 1 93.84 85.68 73.44 
539 1 97.92 83.64 71.4 
566 1 95.88 85.68 71.4 
810 1 95.88 83.64 73.44 
848 1 97.92 85.68 73.44 
570 1 99.96 85.68 71.4 
814 1 99.96 83.64 73.44 
573 1 67.32 89.76 71.4 
817 1 67.32 87.72 73.44 
853 1 65.28 89.76 73.44 
543 1 69.36 87.72 71.4 
577 1 71.4 89.76 71.4 
821 1 71.4 87.72 73.44 
857 1 69.36 89.76 73.44 
547 1 73.44 87.72 71.4 
581 1 75.48 89.76 71.4 
825 1 75.48 87.72 73.44 
861 1 73.44 89.76 73.44 
551 1 77.52 87.72 71.4 
865 1 77.52 89.76 73.44 
555 1 81.6 87.72 71.4 
585 1 79.56 89.76 71.4 
829 1 79.56 87.72 73.44 
869 1 81.6 89.76 73.44 
559 1 85.68 87.72 71.4 
589 1 83.64 89.76 71.4 
833 1 83.64 87.72 73.44 
873 1 85.68 89.76 73.44 
563 1 89.76 87.72 71.4 
593 1 87.72 89.76 71.4 
837 1 87.72 87.72 73.44 
877 1 89.76 89.76 73.44 
567 1 93.84 87.72 71.4 
597 1 91.8 89.76 71.4 
841 1 91.8 87.72 73.44 
881 1 93.84 89.76 73.44 
571 1 97.92 87.72 71.4 
601 1 95.88 89.76 71.4 
845 1 95.88 87.72 73.44 
885 1 97.92 89.76 73.44 
605 1 99.96 89.76 71.4 
849 1 99.96 87.72 73.44 
574 1 65.28 91.8 71.4 
608 1 67.32 93.84 71.4 
854 1 67.32 91.8 73.44 
891 1 65.28 93.84 73.44 
578 1 69.36 91.8 71.4 
612 1 71.4 93.84 71.4 
858 1 71.4 91.8 73.44 
895 1 69.36 93.84 73.44 
582 1 73.44 91.8 71.4 
616 1 75.48 93.84 71.4 
862 1 75.48 91.8 73.44 
899 1 73.44 93.84 73.44 
586 1 77.52 91.8 71.4 
903 1 77.52 93.84 73.44 
590 1 81.6 91.8 71.4 
620 1 79.56 93.84 71.4 
866 1 79.56 91.8 73.44 
907 1 81.6 93.84 73.44 
594 1 85.68 91.8 71.4 
624 1 83.64 93.84 71.4 
870 1 83.64 91.8 73.44 
911 1 85.68 93.84 73.44 
598 1 89.76 91.8 71.4 
628 1 87.72 93.84 71.4 
874 1 87.72 91.8 73.44 
915 1 89.76 93.84 73.44 
602 1 93.84 91.8 71.4 
632 1 91.8 93.84 71.4 
878 1 91.8 91.8 73.44 
919 1 93.84 93.84 73.44 
606 1 97.92 91.8 71.4 
636 1 95.88 93.84 71.4 
882 1 95.88 91.8 73.44 
923 1 97.92 93.84 73.44 
640 1 99.96 93.84 71.4 
886 1 99.96 91.8 73.44 
889 1 63.24 95.88 73.44 
609 1 65.28 95.88 71.4 
643 1 67.32 97.92 71.4 
892 1 67.32 95.88 73.44 
930 1 65.28 97.92 73.44 
613 1 69.36 95.88 71.4 
647 1 71.4 97.92 71.4 
896 1 71.4 95.88 73.44 
934 1 69.36 97.92 73.44 
617 1 73.44 95.88 71.4 
651 1 75.48 97.92 71.4 
900 1 75.48 95.88 73.44 
938 1 73.44 97.92 73.44 
621 1 77.52 95.88 71.4 
942 1 77.52 97.92 73.44 
625 1 81.6 95.88 71.4 
655 1 79.56 97.92 71.4 
904 1 79.56 95.88 73.44 
946 1 81.6 97.92 73.44 
629 1 85.68 95.88 71.4 
659 1 83.64 97.92 71.4 
908 1 83.64 95.88 73.44 
950 1 85.68 97.92 73.44 
633 1 89.76 95.88 71.4 
663 1 87.72 97.92 71.4 
912 1 87.72 95.88 73.44 
954 1 89.76 97.92 73.44 
637 1 93.84 95.88 71.4 
667 1 91.8 97.92 71.4 
916 1 91.8 95.88 73.44 
958 1 93.84 97.92 73.44 
641 1 97.92 95.88 71.4 
671 1 95.88 97.92 71.4 
920 1 95.88 95.88 73.44 
962 1 97.92 97.92 73.44 
675 1 99.96 97.92 71.4 
924 1 99.96 95.88 73.44 
927 1 63.24 99.96 73.44 
644 1 65.28 99.96 71.4 
931 1 67.32 99.96 73.44 
648 1 69.36 99.96 71.4 
935 1 71.4 99.96 73.44 
652 1 73.44 99.96 71.4 
939 1 75.48 99.96 73.44 
656 1 77.52 99.96 71.4 
660 1 81.6 99.96 71.4 
943 1 79.56 99.96 73.44 
664 1 85.68 99.96 71.4 
947 1 83.64 99.96 73.44 
668 1 89.76 99.96 71.4 
951 1 87.72 99.96 73.44 
672 1 93.84 99.96 71.4 
955 1 91.8 99.96 73.44 
676 1 97.92 99.96 71.4 
959 1 95.88 99.96 73.44 
963 1 99.96 99.96 73.44 
677 1 89.76 63.24 75.48 
967 1 87.72 63.24 77.52 
679 1 93.84 63.24 75.48 
970 1 91.8 63.24 77.52 
973 1 93.84 61.2 77.52 
682 1 97.92 63.24 75.48 
974 1 95.88 63.24 77.52 
977 1 97.92 61.2 77.52 
681 1 99.96 61.2 75.48 
978 1 99.96 63.24 77.52 
685 1 81.6 67.32 75.48 
981 1 79.56 67.32 77.52 
984 1 81.6 65.28 77.52 
684 1 83.64 65.28 75.48 
688 1 85.68 67.32 75.48 
985 1 83.64 67.32 77.52 
988 1 85.68 65.28 77.52 
687 1 87.72 65.28 75.48 
692 1 89.76 67.32 75.48 
989 1 87.72 67.32 77.52 
992 1 89.76 65.28 77.52 
691 1 91.8 65.28 75.48 
696 1 93.84 67.32 75.48 
993 1 91.8 67.32 77.52 
996 1 93.84 65.28 77.52 
695 1 95.88 65.28 75.48 
700 1 97.92 67.32 75.48 
997 1 95.88 67.32 77.52 
1000 1 97.92 65.28 77.52 
699 1 99.96 65.28 75.48 
1001 1 99.96 67.32 77.52 
1004 1 75.48 71.4 77.52 
703 1 77.52 71.4 75.48 
1007 1 77.52 69.36 77.52 
702 1 79.56 69.36 75.48 
707 1 81.6 71.4 75.48 
1008 1 79.56 71.4 77.52 
1011 1 81.6 69.36 77.52 
706 1 83.64 69.36 75.48 
711 1 85.68 71.4 75.48 
1012 1 83.64 71.4 77.52 
1015 1 85.68 69.36 77.52 
710 1 87.72 69.36 75.48 
715 1 89.76 71.4 75.48 
1016 1 87.72 71.4 77.52 
1019 1 89.76 69.36 77.52 
714 1 91.8 69.36 75.48 
719 1 93.84 71.4 75.48 
1020 1 91.8 71.4 77.52 
1023 1 93.84 69.36 77.52 
718 1 95.88 69.36 75.48 
723 1 97.92 71.4 75.48 
1024 1 95.88 71.4 77.52 
1027 1 97.92 69.36 77.52 
722 1 99.96 69.36 75.48 
1028 1 99.96 71.4 77.52 
1031 1 71.4 75.48 77.52 
725 1 75.48 73.44 75.48 
726 1 73.44 75.48 75.48 
1034 1 73.44 73.44 77.52 
1035 1 75.48 75.48 77.52 
730 1 77.52 75.48 75.48 
1038 1 77.52 73.44 77.52 
729 1 79.56 73.44 75.48 
734 1 81.6 75.48 75.48 
1039 1 79.56 75.48 77.52 
1042 1 81.6 73.44 77.52 
733 1 83.64 73.44 75.48 
738 1 85.68 75.48 75.48 
1043 1 83.64 75.48 77.52 
1046 1 85.68 73.44 77.52 
737 1 87.72 73.44 75.48 
742 1 89.76 75.48 75.48 
1047 1 87.72 75.48 77.52 
1050 1 89.76 73.44 77.52 
741 1 91.8 73.44 75.48 
746 1 93.84 75.48 75.48 
1051 1 91.8 75.48 77.52 
1054 1 93.84 73.44 77.52 
745 1 95.88 73.44 75.48 
750 1 97.92 75.48 75.48 
1055 1 95.88 75.48 77.52 
1058 1 97.92 73.44 77.52 
749 1 99.96 73.44 75.48 
1059 1 99.96 75.48 77.52 
752 1 71.4 77.52 75.48 
1065 1 69.36 77.52 77.52 
756 1 75.48 77.52 75.48 
1069 1 73.44 77.52 77.52 
1073 1 77.52 77.52 77.52 
760 1 79.56 77.52 75.48 
1077 1 81.6 77.52 77.52 
764 1 83.64 77.52 75.48 
1081 1 85.68 77.52 77.52 
768 1 87.72 77.52 75.48 
1085 1 89.76 77.52 77.52 
772 1 91.8 77.52 75.48 
1089 1 93.84 77.52 77.52 
776 1 95.88 77.52 75.48 
1093 1 97.92 77.52 77.52 
780 1 99.96 77.52 75.48 
783 1 67.32 81.6 75.48 
1062 1 67.32 79.56 77.52 
1097 1 65.28 81.6 77.52 
753 1 69.36 79.56 75.48 
787 1 71.4 81.6 75.48 
1066 1 71.4 79.56 77.52 
1101 1 69.36 81.6 77.52 
757 1 73.44 79.56 75.48 
791 1 75.48 81.6 75.48 
1070 1 75.48 79.56 77.52 
1105 1 73.44 81.6 77.52 
761 1 77.52 79.56 75.48 
1109 1 77.52 81.6 77.52 
765 1 81.6 79.56 75.48 
795 1 79.56 81.6 75.48 
1074 1 79.56 79.56 77.52 
1113 1 81.6 81.6 77.52 
769 1 85.68 79.56 75.48 
799 1 83.64 81.6 75.48 
1078 1 83.64 79.56 77.52 
1117 1 85.68 81.6 77.52 
773 1 89.76 79.56 75.48 
803 1 87.72 81.6 75.48 
1082 1 87.72 79.56 77.52 
1121 1 89.76 81.6 77.52 
777 1 93.84 79.56 75.48 
807 1 91.8 81.6 75.48 
1086 1 91.8 79.56 77.52 
1125 1 93.84 81.6 77.52 
781 1 97.92 79.56 75.48 
811 1 95.88 81.6 75.48 
1090 1 95.88 79.56 77.52 
1129 1 97.92 81.6 77.52 
815 1 99.96 81.6 75.48 
1094 1 99.96 79.56 77.52 
784 1 65.28 83.64 75.48 
818 1 67.32 85.68 75.48 
1098 1 67.32 83.64 77.52 
1136 1 65.28 85.68 77.52 
788 1 69.36 83.64 75.48 
822 1 71.4 85.68 75.48 
1102 1 71.4 83.64 77.52 
1140 1 69.36 85.68 77.52 
792 1 73.44 83.64 75.48 
826 1 75.48 85.68 75.48 
1106 1 75.48 83.64 77.52 
1144 1 73.44 85.68 77.52 
796 1 77.52 83.64 75.48 
1148 1 77.52 85.68 77.52 
800 1 81.6 83.64 75.48 
830 1 79.56 85.68 75.48 
1110 1 79.56 83.64 77.52 
1152 1 81.6 85.68 77.52 
804 1 85.68 83.64 75.48 
834 1 83.64 85.68 75.48 
1114 1 83.64 83.64 77.52 
1156 1 85.68 85.68 77.52 
808 1 89.76 83.64 75.48 
838 1 87.72 85.68 75.48 
1118 1 87.72 83.64 77.52 
1160 1 89.76 85.68 77.52 
812 1 93.84 83.64 75.48 
842 1 91.8 85.68 75.48 
1122 1 91.8 83.64 77.52 
1164 1 93.84 85.68 77.52 
816 1 97.92 83.64 75.48 
846 1 95.88 85.68 75.48 
1126 1 95.88 83.64 77.52 
1168 1 97.92 85.68 77.52 
850 1 99.96 85.68 75.48 
1130 1 99.96 83.64 77.52 
852 1 63.24 89.76 75.48 
1133 1 63.24 87.72 77.52 
819 1 65.28 87.72 75.48 
855 1 67.32 89.76 75.48 
1137 1 67.32 87.72 77.52 
1175 1 65.28 89.76 77.52 
823 1 69.36 87.72 75.48 
859 1 71.4 89.76 75.48 
1141 1 71.4 87.72 77.52 
1179 1 69.36 89.76 77.52 
827 1 73.44 87.72 75.48 
863 1 75.48 89.76 75.48 
1145 1 75.48 87.72 77.52 
1183 1 73.44 89.76 77.52 
831 1 77.52 87.72 75.48 
1187 1 77.52 89.76 77.52 
835 1 81.6 87.72 75.48 
867 1 79.56 89.76 75.48 
1149 1 79.56 87.72 77.52 
1191 1 81.6 89.76 77.52 
839 1 85.68 87.72 75.48 
871 1 83.64 89.76 75.48 
1153 1 83.64 87.72 77.52 
1195 1 85.68 89.76 77.52 
843 1 89.76 87.72 75.48 
875 1 87.72 89.76 75.48 
1157 1 87.72 87.72 77.52 
1199 1 89.76 89.76 77.52 
847 1 93.84 87.72 75.48 
879 1 91.8 89.76 75.48 
1161 1 91.8 87.72 77.52 
1203 1 93.84 89.76 77.52 
851 1 97.92 87.72 75.48 
883 1 95.88 89.76 75.48 
1165 1 95.88 87.72 77.52 
1207 1 97.92 89.76 77.52 
887 1 99.96 89.76 75.48 
1169 1 99.96 87.72 77.52 
890 1 63.24 93.84 75.48 
1172 1 63.24 91.8 77.52 
1211 1 61.2 93.84 77.52 
856 1 65.28 91.8 75.48 
893 1 67.32 93.84 75.48 
1176 1 67.32 91.8 77.52 
1215 1 65.28 93.84 77.52 
860 1 69.36 91.8 75.48 
897 1 71.4 93.84 75.48 
1180 1 71.4 91.8 77.52 
1219 1 69.36 93.84 77.52 
864 1 73.44 91.8 75.48 
901 1 75.48 93.84 75.48 
1184 1 75.48 91.8 77.52 
1223 1 73.44 93.84 77.52 
868 1 77.52 91.8 75.48 
1227 1 77.52 93.84 77.52 
872 1 81.6 91.8 75.48 
905 1 79.56 93.84 75.48 
1188 1 79.56 91.8 77.52 
1231 1 81.6 93.84 77.52 
876 1 85.68 91.8 75.48 
909 1 83.64 93.84 75.48 
1192 1 83.64 91.8 77.52 
1235 1 85.68 93.84 77.52 
880 1 89.76 91.8 75.48 
913 1 87.72 93.84 75.48 
1196 1 87.72 91.8 77.52 
1239 1 89.76 93.84 77.52 
884 1 93.84 91.8 75.48 
917 1 91.8 93.84 75.48 
1200 1 91.8 91.8 77.52 
1243 1 93.84 93.84 77.52 
888 1 97.92 91.8 75.48 
921 1 95.88 93.84 75.48 
1204 1 95.88 91.8 77.52 
1247 1 97.92 93.84 77.52 
925 1 99.96 93.84 75.48 
1208 1 99.96 91.8 77.52 
928 1 63.24 97.92 75.48 
1212 1 63.24 95.88 77.52 
1252 1 61.2 97.92 77.52 
894 1 65.28 95.88 75.48 
932 1 67.32 97.92 75.48 
1216 1 67.32 95.88 77.52 
1256 1 65.28 97.92 77.52 
898 1 69.36 95.88 75.48 
936 1 71.4 97.92 75.48 
1220 1 71.4 95.88 77.52 
1260 1 69.36 97.92 77.52 
902 1 73.44 95.88 75.48 
940 1 75.48 97.92 75.48 
1224 1 75.48 95.88 77.52 
1264 1 73.44 97.92 77.52 
906 1 77.52 95.88 75.48 
1268 1 77.52 97.92 77.52 
910 1 81.6 95.88 75.48 
944 1 79.56 97.92 75.48 
1228 1 79.56 95.88 77.52 
1272 1 81.6 97.92 77.52 
914 1 85.68 95.88 75.48 
948 1 83.64 97.92 75.48 
1232 1 83.64 95.88 77.52 
1276 1 85.68 97.92 77.52 
918 1 89.76 95.88 75.48 
952 1 87.72 97.92 75.48 
1236 1 87.72 95.88 77.52 
1280 1 89.76 97.92 77.52 
922 1 93.84 95.88 75.48 
956 1 91.8 97.92 75.48 
1240 1 91.8 95.88 77.52 
1284 1 93.84 97.92 77.52 
926 1 97.92 95.88 75.48 
960 1 95.88 97.92 75.48 
1244 1 95.88 95.88 77.52 
1288 1 97.92 97.92 77.52 
964 1 99.96 97.92 75.48 
1248 1 99.96 95.88 77.52 
929 1 61.2 99.96 75.48 
1253 1 63.24 99.96 77.52 
933 1 65.28 99.96 75.48 
1257 1 67.32 99.96 77.52 
937 1 69.36 99.96 75.48 
1261 1 71.4 99.96 77.52 
941 1 73.44 99.96 75.48 
1265 1 75.48 99.96 77.52 
945 1 77.52 99.96 75.48 
949 1 81.6 99.96 75.48 
1269 1 79.56 99.96 77.52 
953 1 85.68 99.96 75.48 
1273 1 83.64 99.96 77.52 
957 1 89.76 99.96 75.48 
1277 1 87.72 99.96 77.52 
961 1 93.84 99.96 75.48 
1281 1 91.8 99.96 77.52 
965 1 97.92 99.96 75.48 
1285 1 95.88 99.96 77.52 
1289 1 99.96 99.96 77.52 
1292 1 91.8 59.16 81.6 
966 1 97.92 59.16 79.56 
1294 1 95.88 59.16 81.6 
1297 1 99.96 59.16 81.6 
969 1 85.68 63.24 79.56 
1300 1 83.64 63.24 81.6 
1303 1 85.68 61.2 81.6 
968 1 87.72 61.2 79.56 
972 1 89.76 63.24 79.56 
1304 1 87.72 63.24 81.6 
1307 1 89.76 61.2 81.6 
971 1 91.8 61.2 79.56 
976 1 93.84 63.24 79.56 
1308 1 91.8 63.24 81.6 
1311 1 93.84 61.2 81.6 
975 1 95.88 61.2 79.56 
980 1 97.92 63.24 79.56 
1312 1 95.88 63.24 81.6 
1315 1 97.92 61.2 81.6 
979 1 99.96 61.2 79.56 
1316 1 99.96 63.24 81.6 
1319 1 75.48 67.32 81.6 
983 1 77.52 67.32 79.56 
1322 1 77.52 65.28 81.6 
982 1 79.56 65.28 79.56 
987 1 81.6 67.32 79.56 
1323 1 79.56 67.32 81.6 
1326 1 81.6 65.28 81.6 
986 1 83.64 65.28 79.56 
991 1 85.68 67.32 79.56 
1327 1 83.64 67.32 81.6 
1330 1 85.68 65.28 81.6 
990 1 87.72 65.28 79.56 
995 1 89.76 67.32 79.56 
1331 1 87.72 67.32 81.6 
1334 1 89.76 65.28 81.6 
994 1 91.8 65.28 79.56 
999 1 93.84 67.32 79.56 
1335 1 91.8 67.32 81.6 
1338 1 93.84 65.28 81.6 
998 1 95.88 65.28 79.56 
1003 1 97.92 67.32 79.56 
1339 1 95.88 67.32 81.6 
1342 1 97.92 65.28 81.6 
1002 1 99.96 65.28 79.56 
1343 1 99.96 67.32 81.6 
1346 1 71.4 71.4 81.6 
1005 1 75.48 69.36 79.56 
1006 1 73.44 71.4 79.56 
1349 1 73.44 69.36 81.6 
1350 1 75.48 71.4 81.6 
1010 1 77.52 71.4 79.56 
1353 1 77.52 69.36 81.6 
1009 1 79.56 69.36 79.56 
1014 1 81.6 71.4 79.56 
1354 1 79.56 71.4 81.6 
1357 1 81.6 69.36 81.6 
1013 1 83.64 69.36 79.56 
1018 1 85.68 71.4 79.56 
1358 1 83.64 71.4 81.6 
1361 1 85.68 69.36 81.6 
1017 1 87.72 69.36 79.56 
1022 1 89.76 71.4 79.56 
1362 1 87.72 71.4 81.6 
1365 1 89.76 69.36 81.6 
1021 1 91.8 69.36 79.56 
1026 1 93.84 71.4 79.56 
1366 1 91.8 71.4 81.6 
1369 1 93.84 69.36 81.6 
1025 1 95.88 69.36 79.56 
1030 1 97.92 71.4 79.56 
1370 1 95.88 71.4 81.6 
1373 1 97.92 69.36 81.6 
1029 1 99.96 69.36 79.56 
1374 1 99.96 71.4 81.6 
1377 1 67.32 75.48 81.6 
1032 1 71.4 73.44 79.56 
1033 1 69.36 75.48 79.56 
1380 1 69.36 73.44 81.6 
1381 1 71.4 75.48 81.6 
1036 1 75.48 73.44 79.56 
1037 1 73.44 75.48 79.56 
1384 1 73.44 73.44 81.6 
1385 1 75.48 75.48 81.6 
1041 1 77.52 75.48 79.56 
1388 1 77.52 73.44 81.6 
1040 1 79.56 73.44 79.56 
1045 1 81.6 75.48 79.56 
1389 1 79.56 75.48 81.6 